V -t * -v 1.0a5 -a 0
W -t * -x 4774 -y 1659
A -t * -n 1 -p 0 -o 0x7fffffff -c 30 -a 1
A -t * -h 1 -m 1073741823 -s 0
n -t 2.000000 -s 0 -x 2401.490000 -y 1028.770000 -U 0.000000 -V 0.000000 -T 0.000000
n -t 2.100000 -s 0 -x 2401.490000 -y 1028.770000 -U -0.183848 -V -0.183848 -T 0.108786
n -t 2.200000 -s 0 -x 2401.471615 -y 1028.751615 -U -0.367696 -V -0.367696 -T 0.113178
n -t 2.300000 -s 0 -x 2401.434846 -y 1028.714846 -U -0.595549 -V -0.503708 -T 0.108884
n -t 2.400000 -s 0 -x 2401.375291 -y 1028.664475 -U -0.732277 -V -0.724341 -T 0.102817
n -t 2.500000 -s 0 -x 2401.302063 -y 1028.592041 -U -0.950564 -V -0.857221 -T 0.107371
n -t 2.600000 -s 0 -x 2401.207007 -y 1028.506319 -U -1.042794 -V -1.036089 -T 0.102615
n -t 2.700000 -s 0 -x 2401.102727 -y 1028.402710 -U -1.272952 -V -1.080969 -T 0.104267
n -t 2.800000 -s 0 -x 2400.975432 -y 1028.294613 -U -1.319203 -V -1.311223 -T 0.102662
n -t 2.900000 -s 0 -x 2400.843512 -y 1028.163491 -U -1.519543 -V -1.420348 -T 0.101025
n -t 3.000000 -s 0 -x 2400.691557 -y 1028.021456 -U -1.696756 -V -1.596847 -T 0.101109
n -t 3.000000 -s 1 -x 2282.100000 -y 1027.790000 -U 0.000000 -V 0.000000 -T 0.000000
n -t 3.100000 -s 0 -x 2400.521882 -y 1027.861771 -U -1.870133 -V -1.674128 -T 0.102603
n -t 3.100000 -s 1 -x 2282.100000 -y 1027.790000 -U 0.237171 -V 0.079057 -T 0.126491
n -t 3.200000 -s 0 -x 2400.334869 -y 1027.694358 -U -1.980536 -V -1.878930 -T 0.103441
n -t 3.200000 -s 1 -x 2282.123717 -y 1027.797906 -U 0.488841 -V 0.105044 -T 0.115135
n -t 3.300000 -s 0 -x 2400.136815 -y 1027.506465 -U -2.126746 -V -1.927136 -T 0.101947
n -t 3.300000 -s 1 -x 2282.172601 -y 1027.808410 -U 0.731841 -V 0.109588 -T 0.105759
n -t 3.400000 -s 0 -x 2399.924140 -y 1027.313752 -U -2.185509 -V -2.084214 -T 0.102558
n -t 3.400000 -s 1 -x 2282.245785 -y 1027.819369 -U 0.937779 -V 0.205355 -T 0.100466
n -t 3.500000 -s 0 -x 2399.705589 -y 1027.105330 -U -2.348666 -V -2.246390 -T 0.100308
n -t 3.500000 -s 1 -x 2282.339563 -y 1027.839904 -U 1.144798 -V 0.286071 -T 0.105204
n -t 3.600000 -s 0 -x 2399.470723 -y 1026.880691 -U -2.520260 -V -2.326627 -T 0.103451
n -t 3.600000 -s 1 -x 2282.454043 -y 1027.868511 -U 1.378290 -V 0.297351 -T 0.105897
n -t 3.700000 -s 0 -x 2399.218697 -y 1026.648029 -U -2.647099 -V -2.542000 -T 0.101506
n -t 3.700000 -s 1 -x 2282.591872 -y 1027.898246 -U 1.578489 -V 0.316975 -T 0.100177
n -t 3.800000 -s 0 -x 2398.953987 -y 1026.393829 -U -2.895131 -V -2.598137 -T 0.101545
n -t 3.800000 -s 1 -x 2282.749721 -y 1027.929944 -U 1.796197 -V 0.399095 -T 0.100367
n -t 3.900000 -s 0 -x 2398.664474 -y 1026.134015 -U -3.005428 -V -2.803480 -T 0.101308
n -t 3.900000 -s 1 -x 2282.929341 -y 1027.969853 -U 1.998537 -V 0.499451 -T 0.100403
n -t 4.000000 -s 0 -x 2398.363931 -y 1025.853667 -U -3.069102 -V -2.968756 -T 0.102288
n -t 4.000000 -s 1 -x 2283.129194 -y 1028.019799 -U 2.226479 -V 0.387804 -T 0.103664
n -t 4.100000 -s 0 -x 2398.057021 -y 1025.556791 -U -3.342511 -V -3.042700 -T 0.100829
n -t 4.100000 -s 1 -x 2283.351842 -y 1028.058579 -U 2.387944 -V 0.591034 -T 0.103921
n -t 4.200000 -s 0 -x 2397.722770 -y 1025.252521 -U -3.449214 -V -3.251234 -T 0.102275
n -t 4.200000 -s 1 -x 2283.590637 -y 1028.117682 -U 2.611203 -V 0.507165 -T 0.103157
n -t 4.300000 -s 0 -x 2397.377848 -y 1024.927398 -U -3.627867 -V -3.426176 -T 0.101395
n -t 4.300000 -s 1 -x 2283.851757 -y 1028.168399 -U 2.733803 -V 0.605244 -T 0.101779
n -t 4.400000 -s 0 -x 2397.015062 -y 1024.584780 -U -3.824249 -V -3.523509 -T 0.100689
n -t 4.400000 -s 1 -x 2284.125137 -y 1028.228923 -U 2.864890 -V 0.614253 -T 0.099432
n -t 4.500000 -s 0 -x 2396.632637 -y 1024.232429 -U -3.881587 -V -3.681818 -T 0.101154
n -t 4.500000 -s 1 -x 2284.410000 -y 1028.290000 -U 3.043376 -V 0.687214 -T 0.101861
n -t 4.600000 -s 0 -x 2396.244478 -y 1023.864248 -U -4.092063 -V -3.793603 -T 0.101288
n -t 4.600000 -s 1 -x 2284.714338 -y 1028.358721 -U 3.174844 -V 0.694887 -T 0.102576
n -t 4.700000 -s 0 -x 2395.835272 -y 1023.484887 -U -4.220930 -V -3.919356 -T 0.100753
n -t 4.700000 -s 1 -x 2285.031822 -y 1028.428210 -U 3.365014 -V 0.714340 -T 0.100498
n -t 4.800000 -s 0 -x 2395.413179 -y 1023.092952 -U -4.382383 -V -4.083481 -T 0.101127
n -t 4.800000 -s 1 -x 2285.368323 -y 1028.499644 -U 3.563118 -V 0.791640 -T 0.101506
n -t 4.900000 -s 0 -x 2394.974941 -y 1022.684604 -U -4.497582 -V -4.296529 -T 0.101152
n -t 4.900000 -s 1 -x 2285.724635 -y 1028.578808 -U 3.733656 -V 0.807595 -T 0.100535
n -t 5.000000 -s 0 -x 2394.525182 -y 1022.254951 -U -4.706166 -V -4.307715 -T 0.100970
n -t 5.000000 -s 1 -x 2286.098001 -y 1028.659568 -U 3.970768 -V 0.893251 -T 0.101240
n -t 5.100000 -s 0 -x 2394.054566 -y 1021.824179 -U -4.815447 -V -4.513476 -T 0.100627
n -t 5.100000 -s 1 -x 2286.495078 -y 1028.748893 -U 4.175111 -V 0.895183 -T 0.101775
n -t 5.200000 -s 0 -x 2393.573021 -y 1021.372832 -U -4.983854 -V -4.684741 -T 0.100930
n -t 5.200000 -s 1 -x 2286.912589 -y 1028.838411 -U 4.355543 -V 0.912002 -T 0.100426
n -t 5.300000 -s 0 -x 2393.074636 -y 1020.904358 -U -5.090145 -V -4.790670 -T 0.101104
n -t 5.300000 -s 1 -x 2287.348143 -y 1028.929611 -U 4.480749 -V 0.995486 -T 0.100844
n -t 5.400000 -s 0 -x 2392.565621 -y 1020.425291 -U -5.196445 -V -4.896587 -T 0.101150
n -t 5.400000 -s 1 -x 2287.796218 -y 1029.029160 -U 4.733960 -V 1.007581 -T 0.100082
n -t 5.500000 -s 0 -x 2392.045977 -y 1019.935632 -U -5.429344 -V -5.028143 -T 0.100560
n -t 5.500000 -s 1 -x 2288.269614 -y 1029.129918 -U 4.878591 -V 1.095149 -T 0.100518
n -t 5.600000 -s 0 -x 2391.503042 -y 1019.432818 -U -5.598579 -V -5.198606 -T 0.100569
n -t 5.600000 -s 1 -x 2288.757473 -y 1029.239433 -U 5.146054 -V 1.088910 -T 0.101539
n -t 5.700000 -s 0 -x 2390.943184 -y 1018.912957 -U -5.699026 -V -5.398482 -T 0.100576
n -t 5.700000 -s 1 -x 2289.272078 -y 1029.348324 -U 5.335214 -V 1.206809 -T 0.100825
n -t 5.800000 -s 0 -x 2390.373282 -y 1018.373109 -U -5.858811 -V -5.462091 -T 0.101263
n -t 5.800000 -s 1 -x 2289.805600 -y 1029.469005 -U -0.203265 -V 5.716387 -T 0.568715
n -t 5.900000 -s 0 -x 2389.787401 -y 1017.826900 -U -6.009313 -V -5.608615 -T 0.101077
n -t 5.900000 -s 1 -x 2289.785273 -y 1030.040643 -U 1.015174 -V 5.862757 -T 0.477481
n -t 6.000000 -s 0 -x 2389.186470 -y 1017.266038 -U -6.185468 -V -5.786267 -T 0.101281
n -t 6.000000 -s 1 -x 2289.886791 -y 1030.626919 -U 2.360313 -V 5.624849 -T 0.416559
n -t 6.100000 -s 0 -x 2388.567923 -y 1016.687411 -U -6.328260 -V -5.926384 -T 0.100805
n -t 6.100000 -s 1 -x 2290.122822 -y 1031.189404 -U 3.676718 -V 5.165011 -T 0.371847
n -t 6.200000 -s 0 -x 2387.935097 -y 1016.094773 -U -6.504400 -V -6.104030 -T 0.100716
n -t 6.200000 -s 1 -x 2290.490494 -y 1031.705905 -U 4.753655 -V 4.477015 -T 0.344894
n -t 6.300000 -s 0 -x 2387.284657 -y 1015.484370 -U -6.693441 -V -6.194534 -T 0.100794
n -t 6.300000 -s 1 -x 2290.965859 -y 1032.153607 -U 5.595754 -V 3.792774 -T 0.325987
n -t 6.400000 -s 0 -x 2386.615313 -y 1014.864917 -U -6.772672 -V -6.373454 -T 0.101188
n -t 6.400000 -s 1 -x 2291.525435 -y 1032.532884 -U 6.189179 -V 3.205457 -T 0.314188
n -t 6.500000 -s 0 -x 2385.938045 -y 1014.227571 -U -6.936833 -V -6.534620 -T 0.100629
n -t 6.500000 -s 1 -x 2292.144353 -y 1032.853430 -U 6.571625 -V 2.714009 -T 0.308241
n -t 6.600000 -s 0 -x 2385.244362 -y 1013.574109 -U -7.082291 -V -6.584076 -T 0.100866
n -t 6.600000 -s 1 -x 2292.801515 -y 1033.124831 -U 6.893351 -V 2.371878 -T 0.301520
n -t 6.700000 -s 0 -x 2384.536133 -y 1012.915702 -U -7.197879 -V -6.797098 -T 0.100882
n -t 6.700000 -s 1 -x 2293.490850 -y 1033.362019 -U 7.121343 -V 2.154084 -T 0.296173
n -t 6.800000 -s 0 -x 2383.816345 -y 1012.235992 -U -7.423172 -V -6.922356 -T 0.100543
n -t 6.800000 -s 1 -x 2294.202985 -y 1033.577427 -U 7.325129 -V 1.987607 -T 0.293103
n -t 6.900000 -s 0 -x 2383.074028 -y 1011.543756 -U -7.592375 -V -7.092809 -T 0.100631
n -t 6.900000 -s 1 -x 2294.935497 -y 1033.776188 -U 7.506705 -V 1.885994 -T 0.288343
n -t 7.000000 -s 0 -x 2382.314791 -y 1010.834475 -U -7.698690 -V -7.198734 -T 0.100639
n -t 7.000000 -s 1 -x 2295.686168 -y 1033.964787 -U 7.760698 -V 1.857945 -T 0.282685
n -t 7.100000 -s 0 -x 2381.544922 -y 1010.114602 -U -7.874854 -V -7.376365 -T 0.100944
n -t 7.100000 -s 1 -x 2296.462238 -y 1034.150582 -U 7.983949 -V 1.869908 -T 0.277778
n -t 7.200000 -s 0 -x 2380.757436 -y 1009.376965 -U -8.003053 -V -7.502803 -T 0.100891
n -t 7.200000 -s 1 -x 2297.260633 -y 1034.337572 -U 8.188357 -V 1.873717 -T 0.273482
n -t 7.300000 -s 0 -x 2379.957131 -y 1008.626685 -U -8.214043 -V -7.613770 -T 0.100697
n -t 7.300000 -s 1 -x 2298.079468 -y 1034.524944 -U 3.439379 -V 7.860475 -T 0.462447
n -t 7.400000 -s 0 -x 2379.135727 -y 1007.865308 -U -8.383204 -V -7.784310 -T 0.100883
n -t 7.400000 -s 1 -x 2298.423406 -y 1035.310992 -U 4.997000 -V 7.219307 -T 0.419571
n -t 7.500000 -s 0 -x 2378.297406 -y 1007.086877 -U -8.469427 -V -7.970302 -T 0.101235
n -t 7.500000 -s 1 -x 2298.923106 -y 1036.032922 -U 6.324000 -V 6.375533 -T 0.391666
n -t 7.600000 -s 0 -x 2377.450463 -y 1006.289847 -U -8.617278 -V -8.017195 -T 0.101014
n -t 7.600000 -s 1 -x 2299.555506 -y 1036.670476 -U 7.382510 -V 5.539987 -T 0.371756
n -t 7.700000 -s 0 -x 2376.588736 -y 1005.488127 -U -11.235164 -V -4.071067 -T 0.097794
n -t 7.700000 -s 1 -x 2300.293757 -y 1037.224474 -U 8.129911 -V 4.738422 -T 0.359935
n -t 7.800000 -s 0 -x 2375.490000 -y 1005.090000 -U -11.910190 -V -2.402055 -T 0.099914
n -t 7.800000 -s 1 -x 2301.106748 -y 1037.698316 -U 8.646619 -V 4.054439 -T 0.353115
n -t 7.900000 -s 0 -x 2374.300000 -y 1004.850000 -U -12.104343 -V -2.500897 -T 0.099964
n -t 7.900000 -s 1 -x 2301.971410 -y 1038.103760 -U 9.039855 -V 3.572033 -T 0.346088
n -t 8.000000 -s 0 -x 2373.090000 -y 1004.600000 -U -12.268632 -V -2.393879 -T 0.100256
n -t 8.000000 -s 1 -x 2302.875396 -y 1038.460964 -U 9.351550 -V 3.187931 -T 0.341612
n -t 8.000000 -s 2 -x 1927.990000 -y 610.790000 -U 0.000000 -V 0.000000 -T 0.000000
n -t 8.100000 -s 0 -x 2371.863137 -y 1004.360612 -U -12.400435 -V -2.599636 -T 0.100249
n -t 8.100000 -s 1 -x 2303.810551 -y 1038.779757 -U 9.590541 -V 2.902056 -T 0.337775
n -t 8.100000 -s 2 -x 1927.990000 -y 610.790000 -U 0.250000 -V 0.000000 -T 0.080000
n -t 8.200000 -s 0 -x 2370.623093 -y 1004.100648 -U -12.633655 -V -2.507025 -T 0.099978
n -t 8.200000 -s 1 -x 2304.769605 -y 1039.069962 -U 9.828796 -V 2.726676 -T 0.333753
n -t 8.200000 -s 2 -x 1928.010000 -y 610.790000 -U 0.500096 -V 0.100019 -T 0.099981
n -t 8.300000 -s 0 -x 2369.360000 -y 1003.850000 -U -12.745643 -V -2.609344 -T 0.099642
n -t 8.300000 -s 1 -x 2305.752485 -y 1039.342630 -U 10.076947 -V 2.612134 -T 0.328226
n -t 8.300000 -s 2 -x 1928.060000 -y 610.800000 -U 0.754131 -V 0.094266 -T 0.106082
n -t 8.400000 -s 0 -x 2368.090000 -y 1003.590000 -U -12.861309 -V -2.691902 -T 0.100301
n -t 8.400000 -s 1 -x 2306.760179 -y 1039.603843 -U 10.236983 -V 2.509139 -T 0.325274
n -t 8.400000 -s 2 -x 1928.135413 -y 610.809427 -U 1.004878 -V 0.101590 -T 0.104079
n -t 8.500000 -s 0 -x 2366.803869 -y 1003.320810 -U -13.055268 -V -2.591538 -T 0.100639
n -t 8.500000 -s 1 -x 2307.783878 -y 1039.854757 -U 10.460353 -V 2.478611 -T 0.320842
n -t 8.500000 -s 2 -x 1928.235901 -y 610.819586 -U 1.223555 -V 0.201276 -T 0.101425
n -t 8.600000 -s 0 -x 2365.498342 -y 1003.061656 -U -13.226250 -V -2.704868 -T 0.100432
n -t 8.600000 -s 1 -x 2308.829913 -y 1040.102618 -U 10.642169 -V 2.447578 -T 0.317613
n -t 8.600000 -s 2 -x 1928.358256 -y 610.839713 -U 1.461180 -V 0.291640 -T 0.103850
n -t 8.700000 -s 0 -x 2364.175717 -y 1002.791169 -U -13.449659 -V -2.710178 -T 0.100056
n -t 8.700000 -s 1 -x 2309.894130 -y 1040.347376 -U 10.800985 -V 2.425620 -T 0.314404
n -t 8.700000 -s 2 -x 1928.504374 -y 610.868877 -U 1.666502 -V 0.212535 -T 0.099385
n -t 8.800000 -s 0 -x 2362.830751 -y 1002.520151 -U -13.628283 -V -2.785321 -T 0.100581
n -t 8.800000 -s 1 -x 2310.974228 -y 1040.589938 -U 10.971661 -V 2.441364 -T 0.311327
n -t 8.800000 -s 2 -x 1928.670000 -y 610.890000 -U 1.814965 -V 0.302494 -T 0.099175
n -t 8.900000 -s 0 -x 2361.467923 -y 1002.241619 -U -13.789008 -V -2.797886 -T 0.100654
n -t 8.900000 -s 1 -x 2312.071394 -y 1040.834074 -U 11.134133 -V 2.447671 -T 0.308835
n -t 8.900000 -s 2 -x 1928.850000 -y 610.920000 -U 2.029396 -V 0.289914 -T 0.103479
n -t 9.000000 -s 0 -x 2360.089022 -y 1001.961831 -U -13.979173 -V -2.816081 -T 0.100079
n -t 9.000000 -s 1 -x 2313.184808 -y 1041.078842 -U 11.268265 -V 2.489537 -T 0.305743
n -t 9.000000 -s 2 -x 1929.052940 -y 610.948991 -U 2.161758 -V 0.408415 -T 0.100409
n -t 9.100000 -s 0 -x 2358.691105 -y 1001.680223 -U -14.177371 -V -2.895348 -T 0.100238
n -t 9.100000 -s 1 -x 2314.311634 -y 1041.327795 -U 11.526512 -V 2.525773 -T 0.301771
n -t 9.100000 -s 2 -x 1929.269115 -y 610.989833 -U 2.419191 -V 0.387317 -T 0.103706
n -t 9.200000 -s 0 -x 2357.273368 -y 1001.390688 -U -14.328321 -V -2.905791 -T 0.100037
n -t 9.200000 -s 1 -x 2315.464285 -y 1041.580373 -U 11.697017 -V 2.541791 -T 0.298855
n -t 9.200000 -s 2 -x 1929.511035 -y 611.028565 -U 2.609219 -V 0.401962 -T 0.103083
n -t 9.300000 -s 0 -x 2355.840536 -y 1001.100109 -U -14.516710 -V -2.982871 -T 0.100611
n -t 9.300000 -s 1 -x 2316.633987 -y 1041.834552 -U 11.950092 -V 2.601577 -T 0.294225
n -t 9.300000 -s 2 -x 1929.771956 -y 611.068761 -U 2.811333 -V 0.402498 -T 0.102458
n -t 9.400000 -s 0 -x 2354.388865 -y 1000.801822 -U -14.706835 -V -3.001518 -T 0.100556
n -t 9.400000 -s 1 -x 2317.828996 -y 1042.094709 -U 12.152137 -V 2.660669 -T 0.291389
n -t 9.400000 -s 2 -x 1930.053090 -y 611.109011 -U 2.966572 -V 0.509459 -T 0.100085
n -t 9.500000 -s 0 -x 2352.918181 -y 1000.501670 -U -14.900924 -V -3.000410 -T 0.100543
n -t 9.500000 -s 1 -x 2319.044210 -y 1042.360776 -U 12.363999 -V 2.674703 -T 0.287592
n -t 9.500000 -s 2 -x 1930.349747 -y 611.159957 -U 3.141872 -V 0.490956 -T 0.101931
n -t 9.600000 -s 0 -x 2351.428089 -y 1000.201629 -U -15.105031 -V -3.100716 -T 0.100502
n -t 9.600000 -s 1 -x 2320.280610 -y 1042.628246 -U 12.573610 -V 2.746128 -T 0.284675
n -t 9.600000 -s 2 -x 1930.663934 -y 611.209052 -U 3.403316 -V 0.501037 -T 0.101685
n -t 9.700000 -s 0 -x 2349.917586 -y 999.891557 -U -15.348089 -V -3.109945 -T 0.100181
n -t 9.700000 -s 1 -x 2321.537971 -y 1042.902859 -U 12.785805 -V 2.758548 -T 0.281721
n -t 9.700000 -s 2 -x 1931.004266 -y 611.259156 -U 3.610380 -V 0.600629 -T 0.101301
n -t 9.800000 -s 0 -x 2348.382777 -y 999.580563 -U -15.503081 -V -3.200530 -T 0.100159
n -t 9.800000 -s 1 -x 2322.816551 -y 1043.178714 -U 12.944926 -V 2.826903 -T 0.279913
n -t 9.800000 -s 2 -x 1931.365304 -y 611.319219 -U 3.792949 -V 0.599279 -T 0.101424
n -t 9.900000 -s 0 -x 2346.832469 -y 999.260510 -U -15.710994 -V -3.182069 -T 0.100724
n -t 9.900000 -s 1 -x 2324.111044 -y 1043.461404 -U 13.096015 -V 2.838028 -T 0.277867
n -t 9.900000 -s 2 -x 1931.744599 -y 611.379147 -U 3.975462 -V 0.596743 -T 0.101976
n -t 10.000000 -s 3 -x 6.720000 -y 478.990000 -U 0.000000 -V 0.000000 -T 0.000000
n -t 10.000000 -s 0 -x 2345.261369 -y 998.942303 -U -15.959953 -V -3.212211 -T 0.100337
n -t 10.000000 -s 1 -x 2325.420645 -y 1043.745207 -U 13.259185 -V 2.887717 -T 0.275232
n -t 10.000000 -s 2 -x 1932.142145 -y 611.438821 -U 4.179791 -V 0.712002 -T 0.099970
+ -t 10.000000000 -s 0 -d -1 -p tcp -e 40 -c 2 -a 0 -i 0 -k AGT 
- -t 10.000000000 -s 0 -d -1 -p tcp -e 40 -c 2 -a 0 -i 0 -k AGT
h -t 10.000000000 -s 0 -d -1 -p tcp -e 40 -c 2 -a 0 -i 0 -k AGT
+ -t 10.002092237 -s 0 -d -1 -p DSR -e 32 -c 2 -a 0 -i 1 -k RTR 
- -t 10.002092237 -s 0 -d -1 -p DSR -e 32 -c 2 -a 0 -i 1 -k RTR
h -t 10.002092237 -s 0 -d -1 -p DSR -e 32 -c 2 -a 0 -i 1 -k RTR
+ -t 10.057600603 -s 0 -d -1 -p DSR -e 32 -c 2 -a 0 -i 2 -k RTR 
- -t 10.057600603 -s 0 -d -1 -p DSR -e 32 -c 2 -a 0 -i 2 -k RTR
h -t 10.057600603 -s 0 -d -1 -p DSR -e 32 -c 2 -a 0 -i 2 -k RTR
+ -t 10.065807984 -s 51 -d -1 -p DSR -e 48 -c 2 -a 0 -i 2 -k RTR 
- -t 10.065807984 -s 51 -d -1 -p DSR -e 48 -c 2 -a 0 -i 2 -k RTR
h -t 10.065807984 -s 51 -d -1 -p DSR -e 48 -c 2 -a 0 -i 2 -k RTR
+ -t 10.066218310 -s 59 -d -1 -p DSR -e 48 -c 2 -a 0 -i 2 -k RTR 
- -t 10.066218310 -s 59 -d -1 -p DSR -e 48 -c 2 -a 0 -i 2 -k RTR
h -t 10.066218310 -s 59 -d -1 -p DSR -e 48 -c 2 -a 0 -i 2 -k RTR
+ -t 10.066258062 -s 49 -d -1 -p DSR -e 48 -c 2 -a 0 -i 2 -k RTR 
- -t 10.066258062 -s 49 -d -1 -p DSR -e 48 -c 2 -a 0 -i 2 -k RTR
h -t 10.066258062 -s 49 -d -1 -p DSR -e 48 -c 2 -a 0 -i 2 -k RTR
+ -t 10.066957205 -s 41 -d -1 -p DSR -e 68 -c 2 -a 0 -i 2 -k RTR 
- -t 10.066957205 -s 41 -d -1 -p DSR -e 68 -c 2 -a 0 -i 2 -k RTR
h -t 10.066957205 -s 41 -d -1 -p DSR -e 68 -c 2 -a 0 -i 2 -k RTR
+ -t 10.068200261 -s 1 -d -1 -p DSR -e 48 -c 2 -a 0 -i 2 -k RTR 
- -t 10.068200261 -s 1 -d -1 -p DSR -e 48 -c 2 -a 0 -i 2 -k RTR
h -t 10.068200261 -s 1 -d -1 -p DSR -e 48 -c 2 -a 0 -i 2 -k RTR
+ -t 10.068413557 -s 36 -d -1 -p DSR -e 48 -c 2 -a 0 -i 2 -k RTR 
- -t 10.068413557 -s 36 -d -1 -p DSR -e 48 -c 2 -a 0 -i 2 -k RTR
h -t 10.068413557 -s 36 -d -1 -p DSR -e 48 -c 2 -a 0 -i 2 -k RTR
+ -t 10.069094465 -s 50 -d 41 -p DSR -e 60 -c 2 -a 0 -i 3 -k RTR 
- -t 10.069094465 -s 50 -d 41 -p DSR -e 60 -c 2 -a 0 -i 3 -k RTR
h -t 10.069094465 -s 50 -d 41 -p DSR -e 60 -c 2 -a 0 -i 3 -k RTR
+ -t 10.069348185 -s 62 -d -1 -p DSR -e 92 -c 2 -a 0 -i 2 -k RTR 
- -t 10.069348185 -s 62 -d -1 -p DSR -e 92 -c 2 -a 0 -i 2 -k RTR
h -t 10.069348185 -s 62 -d -1 -p DSR -e 92 -c 2 -a 0 -i 2 -k RTR
+ -t 10.070957650 -s 16 -d -1 -p DSR -e 68 -c 2 -a 0 -i 2 -k RTR 
- -t 10.070957650 -s 16 -d -1 -p DSR -e 68 -c 2 -a 0 -i 2 -k RTR
h -t 10.070957650 -s 16 -d -1 -p DSR -e 68 -c 2 -a 0 -i 2 -k RTR
+ -t 10.072658544 -s 9 -d -1 -p DSR -e 68 -c 2 -a 0 -i 2 -k RTR 
- -t 10.072658544 -s 9 -d -1 -p DSR -e 68 -c 2 -a 0 -i 2 -k RTR
h -t 10.072658544 -s 9 -d -1 -p DSR -e 68 -c 2 -a 0 -i 2 -k RTR
+ -t 10.072744482 -s 6 -d -1 -p DSR -e 92 -c 2 -a 0 -i 2 -k RTR 
- -t 10.072744482 -s 6 -d -1 -p DSR -e 92 -c 2 -a 0 -i 2 -k RTR
h -t 10.072744482 -s 6 -d -1 -p DSR -e 92 -c 2 -a 0 -i 2 -k RTR
+ -t 10.073804465 -s 23 -d -1 -p DSR -e 92 -c 2 -a 0 -i 2 -k RTR 
- -t 10.073804465 -s 23 -d -1 -p DSR -e 92 -c 2 -a 0 -i 2 -k RTR
h -t 10.073804465 -s 23 -d -1 -p DSR -e 92 -c 2 -a 0 -i 2 -k RTR
+ -t 10.074674628 -s 56 -d -1 -p DSR -e 68 -c 2 -a 0 -i 2 -k RTR 
- -t 10.074674628 -s 56 -d -1 -p DSR -e 68 -c 2 -a 0 -i 2 -k RTR
h -t 10.074674628 -s 56 -d -1 -p DSR -e 68 -c 2 -a 0 -i 2 -k RTR
+ -t 10.074808209 -s 63 -d -1 -p DSR -e 68 -c 2 -a 0 -i 2 -k RTR 
- -t 10.074808209 -s 63 -d -1 -p DSR -e 68 -c 2 -a 0 -i 2 -k RTR
h -t 10.074808209 -s 63 -d -1 -p DSR -e 68 -c 2 -a 0 -i 2 -k RTR
+ -t 10.075786942 -s 8 -d -1 -p DSR -e 68 -c 2 -a 0 -i 2 -k RTR 
- -t 10.075786942 -s 8 -d -1 -p DSR -e 68 -c 2 -a 0 -i 2 -k RTR
h -t 10.075786942 -s 8 -d -1 -p DSR -e 68 -c 2 -a 0 -i 2 -k RTR
+ -t 10.075932570 -s 50 -d 62 -p DSR -e 68 -c 2 -a 0 -i 4 -k RTR 
- -t 10.075932570 -s 50 -d 62 -p DSR -e 68 -c 2 -a 0 -i 4 -k RTR
h -t 10.075932570 -s 50 -d 62 -p DSR -e 68 -c 2 -a 0 -i 4 -k RTR
+ -t 10.076012668 -s 12 -d -1 -p DSR -e 92 -c 2 -a 0 -i 2 -k RTR 
- -t 10.076012668 -s 12 -d -1 -p DSR -e 92 -c 2 -a 0 -i 2 -k RTR
h -t 10.076012668 -s 12 -d -1 -p DSR -e 92 -c 2 -a 0 -i 2 -k RTR
+ -t 10.076124477 -s 29 -d -1 -p DSR -e 92 -c 2 -a 0 -i 2 -k RTR 
- -t 10.076124477 -s 29 -d -1 -p DSR -e 92 -c 2 -a 0 -i 2 -k RTR
h -t 10.076124477 -s 29 -d -1 -p DSR -e 92 -c 2 -a 0 -i 2 -k RTR
+ -t 10.079187202 -s 50 -d 6 -p DSR -e 68 -c 2 -a 0 -i 5 -k RTR 
- -t 10.079187202 -s 50 -d 6 -p DSR -e 68 -c 2 -a 0 -i 5 -k RTR
h -t 10.079187202 -s 50 -d 6 -p DSR -e 68 -c 2 -a 0 -i 5 -k RTR
+ -t 10.079997577 -s 66 -d -1 -p DSR -e 68 -c 2 -a 0 -i 2 -k RTR 
- -t 10.079997577 -s 66 -d -1 -p DSR -e 68 -c 2 -a 0 -i 2 -k RTR
h -t 10.079997577 -s 66 -d -1 -p DSR -e 68 -c 2 -a 0 -i 2 -k RTR
+ -t 10.080003266 -s 50 -d 23 -p DSR -e 68 -c 2 -a 0 -i 6 -k RTR 
- -t 10.080003266 -s 50 -d 23 -p DSR -e 68 -c 2 -a 0 -i 6 -k RTR
h -t 10.080003266 -s 50 -d 23 -p DSR -e 68 -c 2 -a 0 -i 6 -k RTR
+ -t 10.080177897 -s 50 -d 12 -p DSR -e 68 -c 2 -a 0 -i 7 -k RTR 
- -t 10.080177897 -s 50 -d 12 -p DSR -e 68 -c 2 -a 0 -i 7 -k RTR
h -t 10.080177897 -s 50 -d 12 -p DSR -e 68 -c 2 -a 0 -i 7 -k RTR
+ -t 10.080267539 -s 2 -d -1 -p DSR -e 120 -c 2 -a 0 -i 2 -k RTR 
- -t 10.080267539 -s 2 -d -1 -p DSR -e 120 -c 2 -a 0 -i 2 -k RTR
h -t 10.080267539 -s 2 -d -1 -p DSR -e 120 -c 2 -a 0 -i 2 -k RTR
+ -t 10.083288768 -s 15 -d -1 -p DSR -e 92 -c 2 -a 0 -i 2 -k RTR 
- -t 10.083288768 -s 15 -d -1 -p DSR -e 92 -c 2 -a 0 -i 2 -k RTR
h -t 10.083288768 -s 15 -d -1 -p DSR -e 92 -c 2 -a 0 -i 2 -k RTR
+ -t 10.087527265 -s 50 -d 2 -p DSR -e 76 -c 2 -a 0 -i 8 -k RTR 
- -t 10.087527265 -s 50 -d 2 -p DSR -e 76 -c 2 -a 0 -i 8 -k RTR
h -t 10.087527265 -s 50 -d 2 -p DSR -e 76 -c 2 -a 0 -i 8 -k RTR
+ -t 10.090768874 -s 40 -d -1 -p DSR -e 120 -c 2 -a 0 -i 2 -k RTR 
- -t 10.090768874 -s 40 -d -1 -p DSR -e 120 -c 2 -a 0 -i 2 -k RTR
h -t 10.090768874 -s 40 -d -1 -p DSR -e 120 -c 2 -a 0 -i 2 -k RTR
+ -t 10.091163332 -s 6 -d 41 -p DSR -e 68 -c 2 -a 0 -i 5 -k RTR 
- -t 10.091163332 -s 6 -d 41 -p DSR -e 68 -c 2 -a 0 -i 5 -k RTR
h -t 10.091163332 -s 6 -d 41 -p DSR -e 68 -c 2 -a 0 -i 5 -k RTR
+ -t 10.094365673 -s 64 -d -1 -p DSR -e 152 -c 2 -a 0 -i 2 -k RTR 
- -t 10.094365673 -s 64 -d -1 -p DSR -e 152 -c 2 -a 0 -i 2 -k RTR
h -t 10.094365673 -s 64 -d -1 -p DSR -e 152 -c 2 -a 0 -i 2 -k RTR
+ -t 10.094530510 -s 12 -d 41 -p DSR -e 68 -c 2 -a 0 -i 7 -k RTR 
- -t 10.094530510 -s 12 -d 41 -p DSR -e 68 -c 2 -a 0 -i 7 -k RTR
h -t 10.094530510 -s 12 -d 41 -p DSR -e 68 -c 2 -a 0 -i 7 -k RTR
+ -t 10.096739843 -s 23 -d 41 -p DSR -e 68 -c 2 -a 0 -i 6 -k RTR 
- -t 10.096739843 -s 23 -d 41 -p DSR -e 68 -c 2 -a 0 -i 6 -k RTR
h -t 10.096739843 -s 23 -d 41 -p DSR -e 68 -c 2 -a 0 -i 6 -k RTR
+ -t 10.096794772 -s 44 -d -1 -p DSR -e 152 -c 2 -a 0 -i 2 -k RTR 
- -t 10.096794772 -s 44 -d -1 -p DSR -e 152 -c 2 -a 0 -i 2 -k RTR
h -t 10.096794772 -s 44 -d -1 -p DSR -e 152 -c 2 -a 0 -i 2 -k RTR
n -t 10.100000 -s 3 -x 6.720000 -y 478.990000 -U 0.237171 -V 0.079057 -T 0.126491
n -t 10.100000 -s 0 -x 2343.665374 -y 998.621082 -U -16.124805 -V -3.304886 -T 0.100179
n -t 10.100000 -s 1 -x 2326.746564 -y 1044.033979 -U 13.467429 -V 2.918346 -T 0.272764
n -t 10.100000 -s 2 -x 1932.560000 -y 611.510000 -U 4.416881 -V 0.687070 -T 0.101882
+ -t 10.104866186 -s 41 -d 51 -p DSR -e 68 -c 2 -a 0 -i 5 -k RTR 
- -t 10.104866186 -s 41 -d 51 -p DSR -e 68 -c 2 -a 0 -i 5 -k RTR
h -t 10.104866186 -s 41 -d 51 -p DSR -e 68 -c 2 -a 0 -i 5 -k RTR
+ -t 10.109705114 -s 41 -d 51 -p DSR -e 68 -c 2 -a 0 -i 6 -k RTR 
- -t 10.109705114 -s 41 -d 51 -p DSR -e 68 -c 2 -a 0 -i 6 -k RTR
h -t 10.109705114 -s 41 -d 51 -p DSR -e 68 -c 2 -a 0 -i 6 -k RTR
d -t 10.109705114 -s 41 -d 51 -p DSR -e 68 -c 2 -a 0 -i 5 -k IFQ
+ -t 10.111815962 -s 41 -d 51 -p DSR -e 68 -c 2 -a 0 -i 7 -k RTR 
- -t 10.111815962 -s 41 -d 51 -p DSR -e 68 -c 2 -a 0 -i 7 -k RTR
h -t 10.111815962 -s 41 -d 51 -p DSR -e 68 -c 2 -a 0 -i 7 -k RTR
d -t 10.111815962 -s 41 -d 51 -p DSR -e 68 -c 2 -a 0 -i 6 -k IFQ
+ -t 10.116784924 -s 51 -d 0 -p DSR -e 68 -c 2 -a 0 -i 7 -k RTR 
- -t 10.116784924 -s 51 -d 0 -p DSR -e 68 -c 2 -a 0 -i 7 -k RTR
h -t 10.116784924 -s 51 -d 0 -p DSR -e 68 -c 2 -a 0 -i 7 -k RTR
+ -t 10.120692364 -s 41 -d 51 -p DSR -e 60 -c 2 -a 0 -i 3 -k RTR 
- -t 10.120692364 -s 41 -d 51 -p DSR -e 60 -c 2 -a 0 -i 3 -k RTR
h -t 10.120692364 -s 41 -d 51 -p DSR -e 60 -c 2 -a 0 -i 3 -k RTR
+ -t 10.123676543 -s 51 -d 0 -p DSR -e 60 -c 2 -a 0 -i 3 -k RTR 
- -t 10.123676543 -s 51 -d 0 -p DSR -e 60 -c 2 -a 0 -i 3 -k RTR
h -t 10.123676543 -s 51 -d 0 -p DSR -e 60 -c 2 -a 0 -i 3 -k RTR
d -t 10.123676543 -s 51 -d 0 -p DSR -e 68 -c 2 -a 0 -i 7 -k IFQ
+ -t 10.133708258 -s 0 -d 51 -p tcp -e 84 -c 2 -a 0 -i 0 -k RTR 
- -t 10.133708258 -s 0 -d 51 -p tcp -e 84 -c 2 -a 0 -i 0 -k RTR
h -t 10.133708258 -s 0 -d 51 -p tcp -e 84 -c 2 -a 0 -i 0 -k RTR
+ -t 10.135965412 -s 51 -d 41 -p tcp -e 84 -c 2 -a 0 -i 0 -k RTR 
- -t 10.135965412 -s 51 -d 41 -p tcp -e 84 -c 2 -a 0 -i 0 -k RTR
h -t 10.135965412 -s 51 -d 41 -p tcp -e 84 -c 2 -a 0 -i 0 -k RTR
+ -t 10.138423591 -s 41 -d 50 -p tcp -e 84 -c 2 -a 0 -i 0 -k RTR 
- -t 10.138423591 -s 41 -d 50 -p tcp -e 84 -c 2 -a 0 -i 0 -k RTR
h -t 10.138423591 -s 41 -d 50 -p tcp -e 84 -c 2 -a 0 -i 0 -k RTR
r -t 10.140622070 -s 50 -d 50 -p tcp -e 40 -c 2 -a 0 -i 0 -k AGT
+ -t 10.140622070 -s 50 -d -1 -p ack -e 40 -c 2 -a 0 -i 11 -k AGT 
- -t 10.140622070 -s 50 -d -1 -p ack -e 40 -c 2 -a 0 -i 11 -k AGT
h -t 10.140622070 -s 50 -d -1 -p ack -e 40 -c 2 -a 0 -i 11 -k AGT
+ -t 10.140622070 -s 50 -d 41 -p ack -e 84 -c 2 -a 0 -i 11 -k RTR 
- -t 10.140622070 -s 50 -d 41 -p ack -e 84 -c 2 -a 0 -i 11 -k RTR
h -t 10.140622070 -s 50 -d 41 -p ack -e 84 -c 2 -a 0 -i 11 -k RTR
+ -t 10.142860549 -s 41 -d 51 -p ack -e 84 -c 2 -a 0 -i 11 -k RTR 
- -t 10.142860549 -s 41 -d 51 -p ack -e 84 -c 2 -a 0 -i 11 -k RTR
h -t 10.142860549 -s 41 -d 51 -p ack -e 84 -c 2 -a 0 -i 11 -k RTR
+ -t 10.145238727 -s 51 -d 0 -p ack -e 84 -c 2 -a 0 -i 11 -k RTR 
- -t 10.145238727 -s 51 -d 0 -p ack -e 84 -c 2 -a 0 -i 11 -k RTR
h -t 10.145238727 -s 51 -d 0 -p ack -e 84 -c 2 -a 0 -i 11 -k RTR
r -t 10.147775880 -s 0 -d 0 -p ack -e 40 -c 2 -a 0 -i 11 -k AGT
+ -t 10.147775880 -s 0 -d -1 -p tcp -e 1040 -c 2 -a 0 -i 12 -k AGT 
- -t 10.147775880 -s 0 -d -1 -p tcp -e 1040 -c 2 -a 0 -i 12 -k AGT
h -t 10.147775880 -s 0 -d -1 -p tcp -e 1040 -c 2 -a 0 -i 12 -k AGT
+ -t 10.147775880 -s 0 -d -1 -p tcp -e 1040 -c 2 -a 0 -i 13 -k AGT 
- -t 10.147775880 -s 0 -d -1 -p tcp -e 1040 -c 2 -a 0 -i 13 -k AGT
h -t 10.147775880 -s 0 -d -1 -p tcp -e 1040 -c 2 -a 0 -i 13 -k AGT
+ -t 10.147775880 -s 0 -d 51 -p tcp -e 1084 -c 2 -a 0 -i 12 -k RTR 
- -t 10.147775880 -s 0 -d 51 -p tcp -e 1084 -c 2 -a 0 -i 12 -k RTR
h -t 10.147775880 -s 0 -d 51 -p tcp -e 1084 -c 2 -a 0 -i 12 -k RTR
+ -t 10.147775880 -s 0 -d 51 -p tcp -e 1084 -c 2 -a 0 -i 13 -k RTR 
- -t 10.147775880 -s 0 -d 51 -p tcp -e 1084 -c 2 -a 0 -i 13 -k RTR
h -t 10.147775880 -s 0 -d 51 -p tcp -e 1084 -c 2 -a 0 -i 13 -k RTR
+ -t 10.160133032 -s 51 -d 41 -p tcp -e 1084 -c 2 -a 0 -i 12 -k RTR 
- -t 10.160133032 -s 51 -d 41 -p tcp -e 1084 -c 2 -a 0 -i 12 -k RTR
h -t 10.160133032 -s 51 -d 41 -p tcp -e 1084 -c 2 -a 0 -i 12 -k RTR
+ -t 10.170370566 -s 51 -d 41 -p tcp -e 1084 -c 2 -a 0 -i 13 -k RTR 
- -t 10.170370566 -s 51 -d 41 -p tcp -e 1084 -c 2 -a 0 -i 13 -k RTR
h -t 10.170370566 -s 51 -d 41 -p tcp -e 1084 -c 2 -a 0 -i 13 -k RTR
+ -t 10.180868744 -s 41 -d 50 -p tcp -e 1084 -c 2 -a 0 -i 12 -k RTR 
- -t 10.180868744 -s 41 -d 50 -p tcp -e 1084 -c 2 -a 0 -i 12 -k RTR
h -t 10.180868744 -s 41 -d 50 -p tcp -e 1084 -c 2 -a 0 -i 12 -k RTR
+ -t 10.191227649 -s 41 -d 50 -p tcp -e 1084 -c 2 -a 0 -i 13 -k RTR 
- -t 10.191227649 -s 41 -d 50 -p tcp -e 1084 -c 2 -a 0 -i 13 -k RTR
h -t 10.191227649 -s 41 -d 50 -p tcp -e 1084 -c 2 -a 0 -i 13 -k RTR
n -t 10.200000 -s 3 -x 6.743717 -y 478.997906 -U 0.451223 -V 0.215402 -T 0.102572
n -t 10.200000 -s 0 -x 2342.052894 -y 998.290593 -U -16.371826 -V -3.294439 -T 0.100349
n -t 10.200000 -s 1 -x 2328.093307 -y 1044.325814 -U 13.619740 -V 2.970904 -T 0.270687
n -t 10.200000 -s 2 -x 1933.001688 -y 611.578707 -U 4.574979 -V 0.711663 -T 0.100178
r -t 10.201806128 -s 50 -d 50 -p tcp -e 1040 -c 2 -a 0 -i 12 -k AGT
+ -t 10.201806128 -s 50 -d -1 -p ack -e 40 -c 2 -a 0 -i 14 -k AGT 
- -t 10.201806128 -s 50 -d -1 -p ack -e 40 -c 2 -a 0 -i 14 -k AGT
h -t 10.201806128 -s 50 -d -1 -p ack -e 40 -c 2 -a 0 -i 14 -k AGT
+ -t 10.201806128 -s 50 -d 41 -p ack -e 84 -c 2 -a 0 -i 14 -k RTR 
- -t 10.201806128 -s 50 -d 41 -p ack -e 84 -c 2 -a 0 -i 14 -k RTR
h -t 10.201806128 -s 50 -d 41 -p ack -e 84 -c 2 -a 0 -i 14 -k RTR
r -t 10.212185433 -s 50 -d 50 -p tcp -e 1040 -c 2 -a 0 -i 13 -k AGT
+ -t 10.212185433 -s 50 -d -1 -p ack -e 40 -c 2 -a 0 -i 15 -k AGT 
- -t 10.212185433 -s 50 -d -1 -p ack -e 40 -c 2 -a 0 -i 15 -k AGT
h -t 10.212185433 -s 50 -d -1 -p ack -e 40 -c 2 -a 0 -i 15 -k AGT
+ -t 10.212185433 -s 50 -d 41 -p ack -e 84 -c 2 -a 0 -i 15 -k RTR 
- -t 10.212185433 -s 50 -d 41 -p ack -e 84 -c 2 -a 0 -i 15 -k RTR
h -t 10.212185433 -s 50 -d 41 -p ack -e 84 -c 2 -a 0 -i 15 -k RTR
+ -t 10.214563912 -s 41 -d 51 -p ack -e 84 -c 2 -a 0 -i 14 -k RTR 
- -t 10.214563912 -s 41 -d 51 -p ack -e 84 -c 2 -a 0 -i 14 -k RTR
h -t 10.214563912 -s 41 -d 51 -p ack -e 84 -c 2 -a 0 -i 14 -k RTR
+ -t 10.217063217 -s 41 -d 51 -p ack -e 84 -c 2 -a 0 -i 15 -k RTR 
- -t 10.217063217 -s 41 -d 51 -p ack -e 84 -c 2 -a 0 -i 15 -k RTR
h -t 10.217063217 -s 41 -d 51 -p ack -e 84 -c 2 -a 0 -i 15 -k RTR
+ -t 10.219521396 -s 51 -d 0 -p ack -e 84 -c 2 -a 0 -i 14 -k RTR 
- -t 10.219521396 -s 51 -d 0 -p ack -e 84 -c 2 -a 0 -i 14 -k RTR
h -t 10.219521396 -s 51 -d 0 -p ack -e 84 -c 2 -a 0 -i 14 -k RTR
+ -t 10.221720301 -s 51 -d 0 -p ack -e 84 -c 2 -a 0 -i 15 -k RTR 
- -t 10.221720301 -s 51 -d 0 -p ack -e 84 -c 2 -a 0 -i 15 -k RTR
h -t 10.221720301 -s 51 -d 0 -p ack -e 84 -c 2 -a 0 -i 15 -k RTR
r -t 10.224157442 -s 0 -d 0 -p ack -e 40 -c 2 -a 0 -i 14 -k AGT
+ -t 10.224157442 -s 0 -d -1 -p tcp -e 1040 -c 2 -a 0 -i 16 -k AGT 
- -t 10.224157442 -s 0 -d -1 -p tcp -e 1040 -c 2 -a 0 -i 16 -k AGT
h -t 10.224157442 -s 0 -d -1 -p tcp -e 1040 -c 2 -a 0 -i 16 -k AGT
+ -t 10.224157442 -s 0 -d -1 -p tcp -e 1040 -c 2 -a 0 -i 17 -k AGT 
- -t 10.224157442 -s 0 -d -1 -p tcp -e 1040 -c 2 -a 0 -i 17 -k AGT
h -t 10.224157442 -s 0 -d -1 -p tcp -e 1040 -c 2 -a 0 -i 17 -k AGT
+ -t 10.224157442 -s 0 -d 51 -p tcp -e 1060 -c 2 -a 0 -i 16 -k RTR 
- -t 10.224157442 -s 0 -d 51 -p tcp -e 1060 -c 2 -a 0 -i 16 -k RTR
h -t 10.224157442 -s 0 -d 51 -p tcp -e 1060 -c 2 -a 0 -i 16 -k RTR
+ -t 10.224157442 -s 0 -d 51 -p tcp -e 1060 -c 2 -a 0 -i 17 -k RTR 
- -t 10.224157442 -s 0 -d 51 -p tcp -e 1060 -c 2 -a 0 -i 17 -k RTR
h -t 10.224157442 -s 0 -d 51 -p tcp -e 1060 -c 2 -a 0 -i 17 -k RTR
+ -t 10.234182582 -s 51 -d 41 -p tcp -e 1060 -c 2 -a 0 -i 16 -k RTR 
- -t 10.234182582 -s 51 -d 41 -p tcp -e 1060 -c 2 -a 0 -i 16 -k RTR
h -t 10.234182582 -s 51 -d 41 -p tcp -e 1060 -c 2 -a 0 -i 16 -k RTR
+ -t 10.244188101 -s 51 -d 41 -p tcp -e 1060 -c 2 -a 0 -i 17 -k RTR 
- -t 10.244188101 -s 51 -d 41 -p tcp -e 1060 -c 2 -a 0 -i 17 -k RTR
h -t 10.244188101 -s 51 -d 41 -p tcp -e 1060 -c 2 -a 0 -i 17 -k RTR
r -t 10.246665238 -s 0 -d 0 -p ack -e 40 -c 2 -a 0 -i 15 -k AGT